nqpoint: 360    
npath: 9      
segment_nqpoint:
- 40
- 40
- 40
- 40
- 40
- 40
- 40
- 40
- 40
labels:
- [ '$\Gamma$', '$\mathrm{M}$' ]
- [ '$\mathrm{M}$', '$\mathrm{K}$' ]
- [ '$\mathrm{K}$', '$\Gamma$' ]
- [ '$\Gamma$', '$\mathrm{A}$' ]
- [ '$\mathrm{A}$', '$\mathrm{L}$' ]
- [ '$\mathrm{L}$', '$\mathrm{H}$' ]
- [ '$\mathrm{H}$', '$\mathrm{A}$' ]
- [ '$\mathrm{L}$', '$\mathrm{M}$' ]
- [ '$\mathrm{H}$', '$\mathrm{K}$' ]
reciprocal_lattice:
- [   0.30421316,   0.17563755,   0.00000000 ] # a*
- [   0.00000000,   0.35127510,   0.00000000 ] # b*
- [   0.00000000,   0.00000000,   0.18851644 ] # c*
natom: 4      
lattice:
- [     3.287168735912862,     0.000000000000000,     0.000000000000000 ] # a
- [    -1.643584367956431,     2.846771631826518,     0.000000000000000 ] # b
- [     0.000000000000000,     0.000000000000000,     5.304577106400304 ] # c
points:
- symbol: Zn # 1
  coordinates: [  0.333333333333336,  0.666666666666664,  0.999681433092636 ]
  mass: 65.380000
- symbol: Zn # 2
  coordinates: [  0.666666666666664,  0.333333333333336,  0.499681433092636 ]
  mass: 65.380000
- symbol: O  # 3
  coordinates: [  0.333333333333336,  0.666666666666664,  0.378761552210261 ]
  mass: 15.999400
- symbol: O  # 4
  coordinates: [  0.666666666666664,  0.333333333333336,  0.878761552210260 ]
  mass: 15.999400

phonon:
- q-position: [    0.0000000,    0.0000000,    0.0000000 ]
  distance:    0.0000000
  band:
  - # 1
    frequency:   -0.0044496879
    eigenvector:
    - # atom 1
      - [  0.00000000013541,  0.00000000000000 ]
      - [ -0.00000000058367,  0.00000000000000 ]
      - [ -0.63391841178014,  0.00000917988663 ]
    - # atom 2
      - [  0.00000000013541,  0.00000000000000 ]
      - [ -0.00000000058367,  0.00000000000000 ]
      - [ -0.63391841178014,  0.00000917988663 ]
    - # atom 3
      - [  0.00000000006704,  0.00000000000000 ]
      - [ -0.00000000028888,  0.00000000000000 ]
      - [ -0.31328492957896,  0.00000453673546 ]
    - # atom 4
      - [  0.00000000006704,  0.00000000000000 ]
      - [ -0.00000000028888,  0.00000000000000 ]
      - [ -0.31328492957896,  0.00000453673546 ]
  - # 2
    frequency:   -0.0033876369
    eigenvector:
    - # atom 1
      - [ -0.31686572566904,  0.00000000000000 ]
      - [  0.54882753033789, -0.00000000000001 ]
      - [ -0.00000000057335,  0.00000000000000 ]
    - # atom 2
      - [ -0.31686572566905, -0.00000000000000 ]
      - [  0.54882753033789, -0.00000000000001 ]
      - [ -0.00000000057335,  0.00000000000000 ]
    - # atom 3
      - [ -0.15683148230764, -0.00000000000000 ]
      - [  0.27164009276362, -0.00000000000000 ]
      - [ -0.00000000028335,  0.00000000000000 ]
    - # atom 4
      - [ -0.15683148230764, -0.00000000000000 ]
      - [  0.27164009276361, -0.00000000000000 ]
      - [ -0.00000000028335,  0.00000000000000 ]
  - # 3
    frequency:   -0.0029947042
    eigenvector:
    - # atom 1
      - [  0.54885358563615,  0.00000000000000 ]
      - [  0.31688076870235, -0.00000000000000 ]
      - [ -0.00000000017461,  0.00000000000000 ]
    - # atom 2
      - [  0.54885358563615,  0.00000000000000 ]
      - [  0.31688076870235, -0.00000000000000 ]
      - [ -0.00000000017461,  0.00000000000000 ]
    - # atom 3
      - [  0.27158744372257,  0.00000000000000 ]
      - [  0.15680108536994, -0.00000000000000 ]
      - [ -0.00000000008629,  0.00000000000000 ]
    - # atom 4
      - [  0.27158744372257,  0.00000000000000 ]
      - [  0.15680108536994, -0.00000000000000 ]
      - [ -0.00000000008629,  0.00000000000000 ]
  - # 4
    frequency:    2.7188476210
    eigenvector:
    - # atom 1
      - [  0.65188664956260, -0.00000000000000 ]
      - [ -0.07680956532507, -0.00000000000000 ]
      - [ -0.00000000000000,  0.00000000000000 ]
    - # atom 2
      - [ -0.65188664956259, -0.00000000000000 ]
      - [  0.07680956532507, -0.00000000000000 ]
      - [ -0.00000000000000,  0.00000000000000 ]
    - # atom 3
      - [ -0.26114612179297, -0.00000000000000 ]
      - [  0.03076995074942, -0.00000000000000 ]
      - [ -0.00000000000000,  0.00000000000000 ]
    - # atom 4
      - [  0.26114612179297,  0.00000000000000 ]
      - [ -0.03076995074942, -0.00000000000000 ]
      - [ -0.00000000000000,  0.00000000000000 ]
  - # 5
    frequency:    2.7188476210
    eigenvector:
    - # atom 1
      - [ -0.07680956532507,  0.00000000000000 ]
      - [ -0.65188664956259, -0.00000000000000 ]
      - [ -0.00000000000000,  0.00000000000000 ]
    - # atom 2
      - [  0.07680956532507,  0.00000000000000 ]
      - [  0.65188664956259,  0.00000000000000 ]
      - [  0.00000000000000,  0.00000000000000 ]
    - # atom 3
      - [  0.03076995074942,  0.00000000000000 ]
      - [  0.26114612179297,  0.00000000000000 ]
      - [ -0.00000000000000,  0.00000000000000 ]
    - # atom 4
      - [ -0.03076995074942,  0.00000000000000 ]
      - [ -0.26114612179297, -0.00000000000000 ]
      - [ -0.00000000000000,  0.00000000000000 ]
  - # 6
    frequency:    7.3871695806
    eigenvector:
    - # atom 1
      - [  0.00000000000000,  0.00000000000000 ]
      - [ -0.00000000000000, -0.00000000000000 ]
      - [  0.70251509871558, -0.00003858324543 ]
    - # atom 2
      - [ -0.00000000000000,  0.00000000000000 ]
      - [  0.00000000000000,  0.00000000000000 ]
      - [ -0.70251509871557,  0.00003858324543 ]
    - # atom 3
      - [  0.00000000000000,  0.00000000000000 ]
      - [  0.00000000000000, -0.00000000000000 ]
      - [  0.08045206379239, -0.00000441855517 ]
    - # atom 4
      - [ -0.00000000000000,  0.00000000000000 ]
      - [  0.00000000000000,  0.00000000000000 ]
      - [ -0.08045206379239,  0.00000441855517 ]
  - # 7
    frequency:   10.5843302262
    eigenvector:
    - # atom 1
      - [ -0.00000000000000,  0.00000000000000 ]
      - [ -0.00000000000000, -0.00000000000000 ]
      - [  0.31328016838276,  0.00172720002967 ]
    - # atom 2
      - [  0.00000000000000, -0.00000000000000 ]
      - [ -0.00000000000000, -0.00000000000000 ]
      - [  0.31328016838276,  0.00172720002967 ]
    - # atom 3
      - [ -0.00000000000000, -0.00000000000000 ]
      - [ -0.00000000000000, -0.00000000000000 ]
      - [ -0.63390877770699, -0.00349491404233 ]
    - # atom 4
      - [  0.00000000000000,  0.00000000000000 ]
      - [  0.00000000000000,  0.00000000000000 ]
      - [ -0.63390877770699, -0.00349491404233 ]
  - # 8
    frequency:   11.1782615616
    eigenvector:
    - # atom 1
      - [ -0.15683148108674,  0.00000000000000 ]
      - [  0.27164009346850,  0.00000000000000 ]
      - [  0.00000000000000, -0.00000000000000 ]
    - # atom 2
      - [ -0.15683148108674, -0.00000000000000 ]
      - [  0.27164009346851,  0.00000000000000 ]
      - [ -0.00000000000000, -0.00000000000000 ]
    - # atom 3
      - [  0.31686572320171,  0.00000000000000 ]
      - [ -0.54882753176241, -0.00000000000000 ]
      - [  0.00000000000000, -0.00000000000000 ]
    - # atom 4
      - [  0.31686572320171,  0.00000000000000 ]
      - [ -0.54882753176241, -0.00000000000000 ]
      - [  0.00000000000000, -0.00000000000000 ]
  - # 9
    frequency:   12.0685925431
    eigenvector:
    - # atom 1
      - [ -0.26225785722979,  0.00000000000000 ]
      - [  0.01910243748498, -0.00000000000000 ]
      - [  0.00000000000000, -0.00000000000000 ]
    - # atom 2
      - [  0.26225785722979,  0.00000000000000 ]
      - [ -0.01910243748498, -0.00000000000000 ]
      - [ -0.00000000000000,  0.00000000000000 ]
    - # atom 3
      - [ -0.65466182188426, -0.00000000000000 ]
      - [  0.04768450660904,  0.00000000000000 ]
      - [ -0.00000000000000,  0.00000000000000 ]
    - # atom 4
      - [  0.65466182188426,  0.00000000000000 ]
      - [ -0.04768450660904,  0.00000000000000 ]
      - [  0.00000000000000,  0.00000000000000 ]
  - # 10
    frequency:   12.0685925431
    eigenvector:
    - # atom 1
      - [  0.01910243748498,  0.00000000000000 ]
      - [  0.26225785722979,  0.00000000000000 ]
      - [  0.00000000000000, -0.00000000000000 ]
    - # atom 2
      - [ -0.01910243748498,  0.00000000000000 ]
      - [ -0.26225785722979, -0.00000000000000 ]
      - [  0.00000000000000,  0.00000000000000 ]
    - # atom 3
      - [  0.04768450660904, -0.00000000000000 ]
      - [  0.65466182188426,  0.00000000000000 ]
      - [ -0.00000000000000,  0.00000000000000 ]
    - # atom 4
      - [ -0.04768450660904,  0.00000000000000 ]
      - [ -0.65466182188426, -0.00000000000000 ]
      - [ -0.00000000000000,  0.00000000000000 ]
  - # 11
    frequency:   15.1905981483
    eigenvector:
    - # atom 1
      - [ -0.27158744442760,  0.00000000000000 ]
      - [ -0.15680108414879, -0.00000000000000 ]
      - [ -0.00000000000000, -0.00000000000000 ]
    - # atom 2
      - [ -0.27158744442760, -0.00000000000000 ]
      - [ -0.15680108414879,  0.00000000000000 ]
      - [ -0.00000000000000,  0.00000000000000 ]
    - # atom 3
      - [  0.54885358706060, -0.00000000000000 ]
      - [  0.31688076623513,  0.00000000000000 ]
      - [ -0.00000000000000,  0.00000000000000 ]
    - # atom 4
      - [  0.54885358706060,  0.00000000000000 ]
      - [  0.31688076623513,  0.00000000000000 ]
      - [  0.00000000000000, -0.00000000000000 ]
  - # 12
    frequency:   15.3264760514
    eigenvector:
    - # atom 1
      - [  0.00000000000000,  0.00000000000000 ]
      - [ -0.00000000000000, -0.00000000000000 ]
      - [  0.08039186261833, -0.00311175396441 ]
    - # atom 2
      - [ -0.00000000000000,  0.00000000000000 ]
      - [  0.00000000000000,  0.00000000000000 ]
      - [ -0.08039186261833,  0.00311175396441 ]
    - # atom 3
      - [ -0.00000000000000, -0.00000000000000 ]
      - [ -0.00000000000000,  0.00000000000000 ]
      - [ -0.70198941631852,  0.02717213257733 ]
    - # atom 4
      - [ -0.00000000000000, -0.00000000000000 ]
      - [  0.00000000000000, -0.00000000000000 ]
      - [  0.70198941631852, -0.02717213257733 ]

- q-position: [    0.0128205,    0.0000000,    0.0000000 ]
  distance:    0.0045035
  band:
  - # 1
    frequency:   -0.1536841546
    eigenvector:
    - # atom 1
      - [ -0.30504945015534,  0.00000000000000 ]
      - [ -0.17612037464442, -0.00000000001353 ]
      - [  0.00593553844212, -0.52676287586528 ]
    - # atom 2
      - [ -0.30497202087339, -0.00687266502029 ]
      - [ -0.17607567082985, -0.00396793481595 ]
      - [  0.00593376462799, -0.52676289584955 ]
    - # atom 3
      - [ -0.14763269133153,  0.00101094997915 ]
      - [ -0.08523577032542,  0.00058367231765 ]
      - [  0.00294736973322, -0.26332772511499 ]
    - # atom 4
      - [ -0.14757244203807, -0.00433680995339 ]
      - [ -0.08520098537889, -0.00250385838411 ]
      - [  0.00298606649159, -0.26332728914696 ]
  - # 2
    frequency:    0.1090285021
    eigenvector:
    - # atom 1
      - [  0.31688865057849,  0.00000000000000 ]
      - [ -0.54886724453670, -0.00000000054028 ]
      - [ -0.00000000008091, -0.00000000736970 ]
    - # atom 2
      - [  0.31681448736112, -0.00685546960911 ]
      - [ -0.54873879006416,  0.01187402224381 ]
      - [ -0.00000000007893, -0.00000000736972 ]
    - # atom 3
      - [  0.15678044607305,  0.00121424995445 ]
      - [ -0.27155169880917, -0.00210314271216 ]
      - [ -0.00000000004006, -0.00000000368774 ]
    - # atom 4
      - [  0.15671748516888, -0.00460570474057 ]
      - [ -0.27144264732200,  0.00797731472616 ]
      - [ -0.00000000003993, -0.00000000368775 ]
  - # 3
    frequency:    0.3323305069
    eigenvector:
    - # atom 1
      - [ -0.45633942157009,  0.00000000000000 ]
      - [ -0.26346769194639, -0.00000000036958 ]
      - [ -0.00375795954162,  0.35273596814341 ]
    - # atom 2
      - [ -0.45623604055821, -0.00971303117950 ]
      - [ -0.26340800489829, -0.00560782088293 ]
      - [ -0.00375075830384,  0.35273604479006 ]
    - # atom 3
      - [ -0.22779706881306,  0.00184208194293 ]
      - [ -0.13151870103227,  0.00106352639385 ]
      - [ -0.00183538790324,  0.16942773047959 ]
    - # atom 4
      - [ -0.22770625463207, -0.00669024866075 ]
      - [ -0.13146626944234, -0.00386261679667 ]
      - [ -0.00177124017942,  0.16942841323830 ]
  - # 4
    frequency:    2.7212438852
    eigenvector:
    - # atom 1
      - [  0.32821675800788,  0.00000000000000 ]
      - [ -0.56848809801347, -0.00000000054481 ]
      - [ -0.00000000000541,  0.00000000002881 ]
    - # atom 2
      - [ -0.32813192910050,  0.00746172513459 ]
      - [  0.56834117002427, -0.01292408752729 ]
      - [ -0.00000000000607, -0.00000000002868 ]
    - # atom 3
      - [ -0.13142314449870, -0.00131063416055 ]
      - [  0.22763156244860,  0.00227008484628 ]
      - [ -0.00000000000102,  0.00000000001787 ]
    - # atom 4
      - [  0.13135938153383, -0.00429808735112 ]
      - [ -0.22752112175660,  0.00744450553227 ]
      - [ -0.00000000000142, -0.00000000001784 ]
  - # 5
    frequency:    2.7343485265
    eigenvector:
    - # atom 1
      - [ -0.56855105342114,  0.00000000000000 ]
      - [ -0.32825310533013, -0.00000000033485 ]
      - [ -0.00025905568730,  0.00552281707133 ]
    - # atom 2
      - [  0.56846452156809,  0.00991907579621 ]
      - [  0.32820314614708,  0.00572678077401 ]
      - [ -0.00016266389033, -0.00552649606091 ]
    - # atom 3
      - [  0.22743134090039,  0.00019393213145 ]
      - [  0.13130754652945,  0.00011196675923 ]
      - [ -0.00008242114319,  0.00151206407914 ]
    - # atom 4
      - [ -0.22740010988296, -0.00377391820769 ]
      - [ -0.13128951529288, -0.00217887271332 ]
      - [ -0.00005602877231, -0.00151327188599 ]
  - # 6
    frequency:    7.3845173982
    eigenvector:
    - # atom 1
      - [  0.00526435364941,  0.00000000000000 ]
      - [  0.00303937605960,  0.00000000000328 ]
      - [ -0.00548215591079,  0.70245801674523 ]
    - # atom 2
      - [ -0.00526371276941, -0.00008214150701 ]
      - [ -0.00303900604740, -0.00004742441888 ]
      - [  0.00547920370719, -0.70245803977876 ]
    - # atom 3
      - [ -0.00004021688563, -0.00004503223886 ]
      - [ -0.00002321920431, -0.00002599937505 ]
      - [ -0.00062762088213,  0.08053155085042 ]
    - # atom 4
      - [  0.00004091464304, -0.00004439923886 ]
      - [  0.00002362205473, -0.00002563391273 ]
      - [  0.00062901680191, -0.08053153995925 ]
  - # 7
    frequency:   10.5864035737
    eigenvector:
    - # atom 1
      - [ -0.00369170579778,  0.00000000000000 ]
      - [ -0.00213140737507, -0.00000000000352 ]
      - [  0.00829687995068, -0.31300081756798 ]
    - # atom 2
      - [ -0.00368652409291, -0.00019552956231 ]
      - [ -0.00212841571651, -0.00011288904398 ]
      - [  0.00829271526658, -0.31300092793576 ]
    - # atom 3
      - [ -0.00258530083589,  0.00004288587333 ]
      - [ -0.00149262415254,  0.00002476016523 ]
      - [ -0.01679811978818,  0.63376051266059 ]
    - # atom 4
      - [ -0.00257940065772, -0.00017975499201 ]
      - [ -0.00148921768334, -0.00010378158875 ]
      - [ -0.01679230299860,  0.63376066681061 ]
  - # 8
    frequency:   11.1799592109
    eigenvector:
    - # atom 1
      - [ -0.15678649228715,  0.00000000000000 ]
      - [  0.27156217056650, -0.00000000014696 ]
      - [ -0.00000000000215, -0.00000000003024 ]
    - # atom 2
      - [ -0.15669242792928,  0.00543021116875 ]
      - [  0.27139924632458, -0.00940540149271 ]
      - [  0.00000000000110, -0.00000000003030 ]
    - # atom 3
      - [  0.31688622369268, -0.00105691388868 ]
      - [ -0.54886303967623,  0.00183062767816 ]
      - [  0.00000000000028, -0.00000000001480 ]
    - # atom 4
      - [  0.31673271280538, -0.00991889470262 ]
      - [ -0.54859715098954,  0.01718003045636 ]
      - [ -0.00000000000079, -0.00000000001479 ]
  - # 9
    frequency:   12.0709023705
    eigenvector:
    - # atom 1
      - [ -0.13142807392119,  0.00000000000000 ]
      - [  0.22764010614988,  0.00000000016823 ]
      - [ -0.00000000000142, -0.00000000005824 ]
    - # atom 2
      - [  0.13135530093538, -0.00437304594194 ]
      - [ -0.22751405963290,  0.00757433807569 ]
      - [  0.00000000000052,  0.00000000005826 ]
    - # atom 3
      - [ -0.32821611708114,  0.00091547914077 ]
      - [  0.56848700208229, -0.00158565666254 ]
      - [  0.00000000000198, -0.00000000001895 ]
    - # atom 4
      - [  0.32806484168086, -0.01000586162156 ]
      - [ -0.56822498540597,  0.01733066080517 ]
      - [  0.00000000000261,  0.00000000001887 ]
  - # 10
    frequency:   12.0743492830
    eigenvector:
    - # atom 1
      - [ -0.22746538855990,  0.00000000000000 ]
      - [ -0.13132720067827,  0.00000000017989 ]
      - [ -0.00004666694671,  0.00233423736536 ]
    - # atom 2
      - [  0.22706491070252,  0.01349182420444 ]
      - [  0.13109598467348,  0.00778950835939 ]
      - [  0.00009186757700, -0.00233289567492 ]
    - # atom 3
      - [ -0.56835732309230, -0.01499043614775 ]
      - [ -0.32814124686572, -0.00865473258852 ]
      - [  0.00015586804730, -0.00091981153519 ]
    - # atom 4
      - [  0.56824580637371,  0.01874735787357 ]
      - [  0.32807686268431,  0.01082379147950 ]
      - [  0.00010103615699,  0.00092743722344 ]
  - # 11
    frequency:   15.1908837259
    eigenvector:
    - # atom 1
      - [ -0.27141636518468,  0.00000000000000 ]
      - [ -0.15670231149801, -0.00000000009878 ]
      - [  0.00009154676306,  0.00323613715499 ]
    - # atom 2
      - [ -0.27129756475111, -0.00802961083609 ]
      - [ -0.15663372203863, -0.00463589787885 ]
      - [ -0.00018724492095,  0.00323201235074 ]
    - # atom 3
      - [  0.54886943160999,  0.00792128014453 ]
      - [  0.31688991409209,  0.00457335313109 ]
      - [ -0.00068066187129,  0.00246275635944 ]
    - # atom 4
      - [  0.54886353244631,  0.00831999913194 ]
      - [  0.31688650820561,  0.00480355383119 ]
      - [  0.00060750549377,  0.00248181517121 ]
  - # 12
    frequency:   15.3239129843
    eigenvector:
    - # atom 1
      - [  0.00042030928915,  0.00000000000000 ]
      - [  0.00024266570146,  0.00000000001823 ]
      - [  0.05273050107118, -0.06087841165378 ]
    - # atom 2
      - [ -0.00005995277050, -0.00041601149486 ]
      - [ -0.00003461376912, -0.00024018436596 ]
      - [ -0.05273445051007,  0.06087499057993 ]
    - # atom 3
      - [ -0.00125954033460, -0.00042912493713 ]
      - [ -0.00072719593833, -0.00024775538664 ]
      - [ -0.45995851163770,  0.53098859167600 ]
    - # atom 4
      - [  0.00060439739438,  0.00118545090823 ]
      - [  0.00034894898529,  0.00068442038982 ]
      - [  0.45995074503091, -0.53099531924823 ]

- q-position: [    0.0256410,    0.0000000,    0.0000000 ]
  distance:    0.0090071
  band:
  - # 1
    frequency:    0.1085966375
    eigenvector:
    - # atom 1
      - [  0.23513160212170,  0.00000000000000 ]
      - [  0.13575327135741, -0.00000000076598 ]
      - [ -0.01388473162577,  0.57253174639342 ]
    - # atom 2
      - [  0.23485580514125,  0.01138512660374 ]
      - [  0.13559403988571,  0.00657320558808 ]
      - [ -0.01385367412398,  0.57253249874036 ]
    - # atom 3
      - [  0.10905699702084, -0.00111012330870 ]
      - [  0.06296407543422, -0.00064093061638 ]
      - [ -0.00690208836814,  0.28703938268934 ]
    - # atom 4
      - [  0.10887532648186,  0.00638938623317 ]
      - [  0.06285918788243,  0.00368891394584 ]
      - [ -0.00700452077210,  0.28703690133374 ]
  - # 2
    frequency:    0.2179081431
    eigenvector:
    - # atom 1
      - [  0.31695718669222,  0.00000000000000 ]
      - [ -0.54898595838091, -0.00000000077646 ]
      - [ -0.00000000043241, -0.00000001980141 ]
    - # atom 2
      - [  0.31666011327233, -0.01371972515034 ]
      - [ -0.54847141208371,  0.02376326211450 ]
      - [ -0.00000000042566, -0.00000001980155 ]
    - # atom 3
      - [  0.15662786673332,  0.00241883977257 ]
      - [ -0.27128742603240, -0.00418955345839 ]
      - [ -0.00000000021522, -0.00000000990615 ]
    - # atom 4
      - [  0.15637636338765, -0.00919632518593 ]
      - [ -0.27085180945333,  0.01592850267060 ]
      - [ -0.00000000021405, -0.00000000990617 ]
  - # 3
    frequency:    0.5788540033
    eigenvector:
    - # atom 1
      - [ -0.49618206096902,  0.00000000000000 ]
      - [ -0.28647085249686, -0.00000000088532 ]
      - [ -0.00584390936676,  0.27244449134337 ]
    - # atom 2
      - [ -0.49572841231523, -0.02121270494060 ]
      - [ -0.28620893835680, -0.01224716028091 ]
      - [ -0.00580894176189,  0.27244523915026 ]
    - # atom 3
      - [ -0.24814341511510,  0.00395981979133 ]
      - [ -0.14326567052685,  0.00228620273712 ]
      - [ -0.00278982021943,  0.12389012911905 ]
    - # atom 4
      - [ -0.24774725324120, -0.01456479142330 ]
      - [ -0.14303694637176, -0.00840898609262 ]
      - [ -0.00250926364327,  0.12389612901927 ]
  - # 4
    frequency:    2.7284004089
    eigenvector:
    - # atom 1
      - [  0.32827258361227,  0.00000000000000 ]
      - [ -0.56858479084754, -0.00000000110335 ]
      - [ -0.00000000002184,  0.00000000005784 ]
    - # atom 2
      - [ -0.32793297656898,  0.01492822930158 ]
      - [  0.56799657414658, -0.02585645259675 ]
      - [ -0.00000000002445, -0.00000000005678 ]
    - # atom 3
      - [ -0.13126421243172, -0.00261118358878 ]
      - [  0.22735628401955,  0.00452270241642 ]
      - [ -0.00000000000400,  0.00000000003564 ]
    - # atom 4
      - [  0.13100967214233, -0.00857773572781 ]
      - [ -0.22691540731724,  0.01485707381616 ]
      - [ -0.00000000000561, -0.00000000003542 ]
  - # 5
    frequency:    2.7801345934
    eigenvector:
    - # atom 1
      - [ -0.56883245503899,  0.00000000000000 ]
      - [ -0.32841557260327, -0.00000000066112 ]
      - [ -0.00100756835859,  0.01114322095279 ]
    - # atom 2
      - [  0.56847566223870,  0.02014406483173 ]
      - [  0.32820957820641,  0.01163018064783 ]
      - [ -0.00061232146919, -0.01117191253180 ]
    - # atom 3
      - [  0.22655780657116,  0.00049331641137 ]
      - [  0.13080321124349,  0.00028481634852 ]
      - [ -0.00031678903130,  0.00305263363621 ]
    - # atom 4
      - [ -0.22643317093226, -0.00753008505776 ]
      - [ -0.13073125282292, -0.00434749667190 ]
      - [ -0.00020848740861, -0.00306193736182 ]
  - # 6
    frequency:    7.3765880282
    eigenvector:
    - # atom 1
      - [  0.01062462891834,  0.00000000000000 ]
      - [  0.00613413249147,  0.00000000001319 ]
      - [ -0.01111797686059,  0.70228256668561 ]
    - # atom 2
      - [ -0.01061931596873, -0.00033595834380 ]
      - [ -0.00613106505894, -0.00019396563101 ]
      - [  0.01109425841334, -0.70228294177651 ]
    - # atom 3
      - [ -0.00008873087923, -0.00018012119923 ]
      - [ -0.00005122874631, -0.00010399302218 ]
      - [ -0.00127173087418,  0.08076760330575 ]
    - # atom 4
      - [  0.00009438206927, -0.00017722539418 ]
      - [  0.00005449146240, -0.00010232112995 ]
      - [  0.00128283428661, -0.08076742771293 ]
  - # 7
    frequency:   10.5926192826
    eigenvector:
    - # atom 1
      - [ -0.00738411330924,  0.00000000000000 ]
      - [ -0.00426321988501, -0.00000000001407 ]
      - [  0.01648073778740, -0.31215447143160 ]
    - # atom 2
      - [ -0.00734314409246, -0.00077676521619 ]
      - [ -0.00423956629772, -0.00044846560090 ]
      - [  0.01644751347597, -0.31215622379382 ]
    - # atom 3
      - [ -0.00517698525738,  0.00016982500739 ]
      - [ -0.00298893386696,  0.00009804849292 ]
      - [ -0.03342543016451,  0.63329474838842 ]
    - # atom 4
      - [ -0.00513039724126, -0.00071347111722 ]
      - [ -0.00296203626531, -0.00041192272458 ]
      - [ -0.03337890031861,  0.63329720252939 ]
  - # 8
    frequency:   11.1850404639
    eigenvector:
    - # atom 1
      - [  0.15665188542366,  0.00000000000000 ]
      - [ -0.27132902459525,  0.00000000027680 ]
      - [  0.00000000000851,  0.00000000006068 ]
    - # atom 2
      - [  0.15627660438591, -0.01083679511653 ]
      - [ -0.27067901879004,  0.01876987945276 ]
      - [ -0.00000000000429,  0.00000000006113 ]
    - # atom 3
      - [ -0.31694753918103,  0.00210812428030 ]
      - [  0.54896924128144, -0.00365137664303 ]
      - [ -0.00000000000115,  0.00000000002758 ]
    - # atom 4
      - [ -0.31633408285236,  0.01982258325362 ]
      - [  0.54790670363283, -0.03433372305346 ]
      - [  0.00000000000306,  0.00000000002743 ]
  - # 9
    frequency:   12.0778156036
    eigenvector:
    - # atom 1
      - [ -0.13128380602963,  0.00000000000000 ]
      - [  0.22739022681264,  0.00000000033649 ]
      - [ -0.00000000000565, -0.00000000011610 ]
    - # atom 2
      - [  0.13099346098589, -0.00872644856523 ]
      - [ -0.22688733441272,  0.01511465292335 ]
      - [  0.00000000000208,  0.00000000011622 ]
    - # atom 3
      - [ -0.32827004747731,  0.00182604498385 ]
      - [  0.56858041224533, -0.00316280324437 ]
      - [  0.00000000000789, -0.00000000003814 ]
    - # atom 4
      - [  0.32766542840004, -0.01999813847469 ]
      - [ -0.56753318129597,  0.03463779209928 ]
      - [  0.00000000001041,  0.00000000003753 ]
  - # 10
    frequency:   12.0915516144
    eigenvector:
    - # atom 1
      - [  0.22669250150645,  0.00000000000000 ]
      - [  0.13088097415432, -0.00000000035157 ]
      - [  0.00018636018953, -0.00467892419086 ]
    - # atom 2
      - [ -0.22509390813193, -0.02687420252113 ]
      - [ -0.12995802581596, -0.01551582809907 ]
      - [ -0.00036963645620,  0.00466802212873 ]
    - # atom 3
      - [  0.56805686178216,  0.03004559926487 ]
      - [  0.32796777541546,  0.01734683529009 ]
      - [ -0.00061846297087,  0.00180558812602 ]
    - # atom 4
      - [ -0.56761291054684, -0.03750893271658 ]
      - [ -0.32771146015244, -0.02165579114938 ]
      - [ -0.00040005075412, -0.00186617371145 ]
  - # 11
    frequency:   15.1917406606
    eigenvector:
    - # atom 1
      - [ -0.27090126470567,  0.00000000000000 ]
      - [ -0.15640491808633, -0.00000000019663 ]
      - [  0.00038441716373,  0.00647707266933 ]
    - # atom 2
      - [ -0.27042545003580, -0.01604902464518 ]
      - [ -0.15613020637028, -0.00926590850194 ]
      - [ -0.00076746368692,  0.00644292219485 ]
    - # atom 3
      - [  0.54891263053268,  0.01587290145803 ]
      - [  0.31691485500810,  0.00916422374417 ]
      - [ -0.00287868514443,  0.00485654440545 ]
    - # atom 4
      - [  0.54888887244725,  0.01667425148501 ]
      - [  0.31690113826008,  0.00962688376902 ]
      - [  0.00258591234560,  0.00501855647211 ]
  - # 12
    frequency:   15.3162539807
    eigenvector:
    - # atom 1
      - [  0.00131853835608,  0.00000000000000 ]
      - [  0.00076125849906,  0.00000000004932 ]
      - [  0.07104185415567, -0.03849494653698 ]
    - # atom 2
      - [  0.00072060385872, -0.00110420717043 ]
      - [  0.00041604080376, -0.00063751435435 ]
      - [ -0.07106310544194,  0.03845570173211 ]
    - # atom 3
      - [ -0.00304247173997, -0.00115614429070 ]
      - [ -0.00175657186185, -0.00066750018652 ]
      - [ -0.61773211345382,  0.33445745259166 ]
    - # atom 4
      - [ -0.00069455246093,  0.00317976426618 ]
      - [ -0.00040100006733,  0.00183583772454 ]
      - [  0.61769189968276, -0.33453171546586 ]

- q-position: [    0.0384615,    0.0000000,    0.0000000 ]
  distance:    0.0135106
  band:
  - # 1
    frequency:    0.3010721578
    eigenvector:
    - # atom 1
      - [  0.18651156342605,  0.00000000000000 ]
      - [  0.10768241486660, -0.00000000597003 ]
      - [ -0.02376230743089,  0.59593210190197 ]
    - # atom 2
      - [  0.18592242759837,  0.01481263675202 ]
      - [  0.10734227693693,  0.00855207889971 ]
      - [ -0.02364132169972,  0.59593691380886 ]
    - # atom 3
      - [  0.08084773568763, -0.00061926479285 ]
      - [  0.04667741925481, -0.00035753670281 ]
      - [ -0.01180018959601,  0.29843478898269 ]
    - # atom 4
      - [  0.08054317954608,  0.00703818750141 ]
      - [  0.04650158350110,  0.00406350005245 ]
      - [ -0.01193859612114,  0.29842928420700 ]
  - # 2
    frequency:    0.3263159974
    eigenvector:
    - # atom 1
      - [  0.31707059067633,  0.00000000000000 ]
      - [ -0.54918241227823,  0.00000000128615 ]
      - [ -0.00000000236293, -0.00000007263405 ]
    - # atom 2
      - [  0.31640059916438, -0.02060146403215 ]
      - [ -0.54802195293869,  0.03568278370566 ]
      - [ -0.00000000236069, -0.00000007263412 ]
    - # atom 3
      - [  0.15637530818562,  0.00360422230978 ]
      - [ -0.27084999520000, -0.00624269524936 ]
      - [ -0.00000000118659, -0.00000003632454 ]
    - # atom 4
      - [  0.15581069452954, -0.01375699454222 ]
      - [ -0.26987205568572,  0.02382781365917 ]
      - [ -0.00000000117572, -0.00000003632490 ]
  - # 3
    frequency:    0.8293899810
    eigenvector:
    - # atom 1
      - [ -0.51672447959033,  0.00000000000000 ]
      - [ -0.29833102429191, -0.00000000145190 ]
      - [ -0.00710654767455,  0.21675276113188 ]
    - # atom 2
      - [ -0.51562736720089, -0.03365421223826 ]
      - [ -0.29769760623844, -0.01943026749595 ]
      - [ -0.00702562603946,  0.21675539914128 ]
    - # atom 3
      - [ -0.25800955813074,  0.00589996862659 ]
      - [ -0.14896189128086,  0.00340634801245 ]
      - [ -0.00326958539605,  0.09025779463775 ]
    - # atom 4
      - [ -0.25707748640160, -0.02269157777782 ]
      - [ -0.14842375943994, -0.01310098830111 ]
      - [ -0.00261583749305,  0.09027910652937 ]
  - # 4
    frequency:    2.7402214957
    eigenvector:
    - # atom 1
      - [  0.32836492668269,  0.00000000000000 ]
      - [ -0.56874473382522, -0.00000000169177 ]
      - [ -0.00000000004990,  0.00000000008732 ]
    - # atom 2
      - [ -0.32759971652686,  0.02240425867659 ]
      - [  0.56741935084752, -0.03880531584333 ]
      - [ -0.00000000005575, -0.00000000008371 ]
    - # atom 3
      - [ -0.13100126222273, -0.00389167003736 ]
      - [  0.22690084087316,  0.00674056987062 ]
      - [ -0.00000000000872,  0.00000000005319 ]
    - # atom 4
      - [  0.13043045376163, -0.01282078512277 ]
      - [ -0.22591217164441,  0.02220625078741 ]
      - [ -0.00000000001233, -0.00000000005247 ]
  - # 5
    frequency:    2.8541724471
    eigenvector:
    - # atom 1
      - [ -0.56928662898825,  0.00000000000000 ]